 Gaussian 16, Revision B.01,
 Gaussian 16:  ES64L-G16RevB.01 20-Dec-2017

 ------------------------------------------
 # opt freq b3lyp/CC-PVDZ geom=connectivity
 ------------------------------------------

 -------------------
 Title Card Required
 -------------------
 Symbolic Z-matrix:
 Charge =  0 Multiplicity = 1

 SCF Done:  E(RB3LYP) =  -188.571444288     A.U. after   11 cycles
 SCF Done:  E(RB3LYP) =  -188.598432803     A.U. after   10 cycles
 SCF Done:  E(RB3LYP) =  -188.598467133     A.U. after    7 cycles
 Optimization completed.
    -- Stationary point found.
 Normal termination of Gaussian 16 at Thu Apr  8 15:44:20 2021.

 -------------------------------------------------------------------
 #N Geom=AllCheck Guess=TCheck SCRF=Check GenChk RB3LYP/CC-pVDZ Freq
 -------------------------------------------------------------------

 Structure from the checkpoint file:  "/home/turki/random_projects/basis_set/Gau-52665.chk"
 -------------------
 Title Card Required
 -------------------
 Charge =  0 Multiplicity = 1

                         Standard orientation:
 ---------------------------------------------------------------------
 Center     Atomic      Atomic             Coordinates (Angstroms)
 Number     Number       Type             X           Y           Z
 ---------------------------------------------------------------------
      1          6           0        0.000000    0.000000    0.000000
      2          8           0       -0.000000   -0.000000    1.167371
      3          8           0        0.000000   -0.000000   -1.167371
 ---------------------------------------------------------------------

 SCF Done:  E(RB3LYP) =  -188.598467133     A.U. after    1 cycles

 The electronic state is 1-SGG.
 Alpha  occ. eigenvalues --  -19.22371 -19.22371 -10.38050  -1.15982  -1.11926
 Alpha  occ. eigenvalues --   -0.56131  -0.51663  -0.51210  -0.51210  -0.36756
 Alpha  occ. eigenvalues --   -0.36756
 Alpha virt. eigenvalues --    0.03306   0.03306   0.08152   0.34268   0.41443
 Alpha virt. eigenvalues --    0.41443   0.54032   0.74396   0.83046   0.86775
 Alpha virt. eigenvalues --    0.86775   1.03934   1.03934   1.07653   1.08728

 Mulliken charges:
               1
     1  C    0.288528
     2  O   -0.144264
     3  O   -0.144264
 Sum of Mulliken charges =  -0.00000

 Dipole moment (field-independent basis, Debye):
    X=              0.0000    Y=              0.0000    Z=             -0.0000  Tot=              0.0000
 Quadrupole moment (field-independent basis, Debye-Ang):
   XX=            -14.4449   YY=            -14.4449   ZZ=            -18.6885
   XY=              0.0000   XZ=             -0.0000   YZ=             -0.0000

  Exact polarizability:   7.607   0.000   7.607   0.000   0.000  21.441
 Approx polarizability:   9.661   0.000   9.661   0.000   0.000  45.788

                      1                      2                      3
                     PIU                    PIU                    SGG
 Frequencies --    654.9634               654.9634              1362.5022
 Red. masses --     12.8774                12.8774                15.9949
 Frc consts  --      3.2547                 3.2547                17.4947
 IR Inten    --     28.6567                28.6567                 0.0000

                      4
                     SGU
 Frequencies --   2421.6819
 Red. masses --     12.8774
 Frc consts  --     44.4950
 IR Inten    --    577.6083

 - Thermochemistry -
 -------------------
 Temperature   298.150 Kelvin.  Pressure   1.00000 Atm.
 Atom     1 has atomic number  6 and mass  12.00000

 Molecular mass:    43.98983 amu.
 Principal axes and moments of inertia in atomic units:
                           1         2         3
     Eigenvalues --     0.00000 155.67799 155.67799
           X            0.00000   0.21026   0.97765
           Y            0.00000   0.97765  -0.21026
           Z            1.00000  -0.00000   0.00000
 This molecule is a prolate symmetric top.
 Rotational symmetry number  2.
 Rotational temperature (Kelvin)      0.55637
 Rotational constant (GHZ):          11.592783
 Zero-point vibrational energy      30469.5 (Joules/Mol)
                                    7.28240 (Kcal/Mol)
 Vibrational temperatures:    942.35   942.35  1960.34  3484.26
          (Kelvin)

 Zero-point correction=                           0.011605 (Hartree/Particle)
 Thermal correction to Energy=                    0.014239
 Thermal correction to Enthalpy=                  0.015183
 Thermal correction to Gibbs Free Energy=        -0.009104
 Sum of electronic and zero-point Energies=           -188.586862
 Sum of electronic and thermal Energies=              -188.584228
 Sum of electronic and thermal Enthalpies=            -188.583284
 Sum of electronic and thermal Free Energies=         -188.607572

                     E (Thermal)             CV                S
                      KCal/Mol        Cal/Mol-Kelvin    Cal/Mol-Kelvin
 Total                    8.935              6.926             51.117
 Electronic               0.000              0.000              0.000
 Translational            0.889              2.981             37.270
 Rotational               0.592              1.987             13.097
 Vibrational              7.454              1.958              0.750

 Optimization completed.
    -- Stationary point found.
 Normal termination of Gaussian 16 at Thu Apr  8 15:44:22 2021.
