 Gaussian 16, Revision B.01,
 Gaussian 16:  ES64L-G16RevB.01 20-Dec-2017

 ------------------------------------------
 # opt freq b3lyp/CC-PVQZ geom=connectivity
 ------------------------------------------

 -------------------
 Title Card Required
 -------------------
 Symbolic Z-matrix:
 Charge =  0 Multiplicity = 1

 SCF Done:  E(RB3LYP) =  -188.644413338     A.U. after    9 cycles
 SCF Done:  E(RB3LYP) =  -188.676497672     A.U. after   10 cycles
 SCF Done:  E(RB3LYP) =  -188.676620667     A.U. after    7 cycles
 Optimization completed.
    -- Stationary point found.
 Normal termination of Gaussian 16 at Thu Apr  8 15:47:14 2021.

 -------------------------------------------------------------------
 #N Geom=AllCheck Guess=TCheck SCRF=Check GenChk RB3LYP/CC-pVQZ Freq
 -------------------------------------------------------------------

 Structure from the checkpoint file:  "/home/turki/random_projects/basis_set/Gau-53459.chk"
 -------------------
 Title Card Required
 -------------------
 Charge =  0 Multiplicity = 1

                         Standard orientation:
 ---------------------------------------------------------------------
 Center     Atomic      Atomic             Coordinates (Angstroms)
 Number     Number       Type             X           Y           Z
 ---------------------------------------------------------------------
      1          6           0        0.000000    0.000000    0.000000
      2          8           0        0.000000    0.000000    1.158726
      3          8           0       -0.000000    0.000000   -1.158726
 ---------------------------------------------------------------------

 SCF Done:  E(RB3LYP) =  -188.676620667     A.U. after    1 cycles

 The electronic state is 1-SGG.
 Alpha  occ. eigenvalues --  -19.21083 -19.21083 -10.36487  -1.17144  -1.13182
 Alpha  occ. eigenvalues --   -0.57233  -0.53059  -0.52755  -0.52755  -0.38321
 Alpha  occ. eigenvalues --   -0.38321
 Alpha virt. eigenvalues --    0.01370   0.02415   0.02415   0.16151   0.17731
 Alpha virt. eigenvalues --    0.17731   0.26564   0.32989   0.37330   0.37330
 Alpha virt. eigenvalues --    0.38388   0.41076   0.41076   0.56608   0.56608

 Mulliken charges:
               1
     1  C    0.578908
     2  O   -0.289454
     3  O   -0.289454
 Sum of Mulliken charges =  -0.00000

 Dipole moment (field-independent basis, Debye):
    X=              0.0000    Y=             -0.0000    Z=              0.0000  Tot=              0.0000
 Quadrupole moment (field-independent basis, Debye-Ang):
   XX=            -14.7893   YY=            -14.7893   ZZ=            -19.2599
   XY=              0.0000   XZ=             -0.0000   YZ=             -0.0000

  Exact polarizability:  11.231  -0.000  11.231   0.000   0.000  24.733
 Approx polarizability:  14.771  -0.000  14.771  -0.000  -0.000  46.096

                      1                      2                      3
                     PIU                    PIU                    SGG
 Frequencies --    674.7774               674.7774              1372.1638
 Red. masses --     12.8774                12.8774                15.9949
 Frc consts  --      3.4546                 3.4546                17.7437
 IR Inten    --     31.4198                31.4198                 0.0000

                      4
                     SGU
 Frequencies --   2408.9314
 Red. masses --     12.8774
 Frc consts  --     44.0277
 IR Inten    --    650.7138

 - Thermochemistry -
 -------------------
 Temperature   298.150 Kelvin.  Pressure   1.00000 Atm.
 Atom     1 has atomic number  6 and mass  12.00000

 Molecular mass:    43.98983 amu.
 Principal axes and moments of inertia in atomic units:
                           1         2         3
     Eigenvalues --     0.00000 153.38088 153.38088
           X            0.00000   0.92431   0.38163
           Y            0.00000  -0.38163   0.92431
           Z            1.00000  -0.00000  -0.00000
 This molecule is a prolate symmetric top.
 Rotational symmetry number  2.
 Rotational temperature (Kelvin)      0.56470
 Rotational constant (GHZ):          11.766403
 Zero-point vibrational energy      30688.1 (Joules/Mol)
                                    7.33463 (Kcal/Mol)
 Vibrational temperatures:    970.85   970.85  1974.24  3465.91
          (Kelvin)

 Zero-point correction=                           0.011688 (Hartree/Particle)
 Thermal correction to Energy=                    0.014304
 Thermal correction to Enthalpy=                  0.015248
 Thermal correction to Gibbs Free Energy=        -0.008999
 Sum of electronic and zero-point Energies=           -188.664932
 Sum of electronic and thermal Energies=              -188.662317
 Sum of electronic and thermal Enthalpies=            -188.661373
 Sum of electronic and thermal Free Energies=         -188.685620

                     E (Thermal)             CV                S
                      KCal/Mol        Cal/Mol-Kelvin    Cal/Mol-Kelvin
 Total                    8.976              6.843             51.033
 Electronic               0.000              0.000              0.000
 Translational            0.889              2.981             37.270
 Rotational               0.592              1.987             13.068
 Vibrational              7.495              1.875              0.695

 Optimization completed.
    -- Stationary point found.
 Normal termination of Gaussian 16 at Thu Apr  8 15:47:35 2021.
