 Gaussian 16, Revision B.01,
 Gaussian 16:  ES64L-G16RevB.01 20-Dec-2017

 ------------------------------------------
 # opt freq b3lyp/CC-PVTZ geom=connectivity
 ------------------------------------------

 -------------------
 Title Card Required
 -------------------
 Symbolic Z-matrix:
 Charge =  0 Multiplicity = 1

 SCF Done:  E(RB3LYP) =  -188.629292035     A.U. after   10 cycles
 SCF Done:  E(RB3LYP) =  -188.660474019     A.U. after    9 cycles
 SCF Done:  E(RB3LYP) =  -188.660569578     A.U. after    7 cycles
 Optimization completed.
    -- Stationary point found.
 Normal termination of Gaussian 16 at Thu Apr  8 15:48:11 2021.

 -------------------------------------------------------------------
 #N Geom=AllCheck Guess=TCheck SCRF=Check GenChk RB3LYP/CC-pVTZ Freq
 -------------------------------------------------------------------

 Structure from the checkpoint file:  "/home/turki/random_projects/basis_set/Gau-54217.chk"
 -------------------
 Title Card Required
 -------------------
 Charge =  0 Multiplicity = 1

                         Standard orientation:
 ---------------------------------------------------------------------
 Center     Atomic      Atomic             Coordinates (Angstroms)
 Number     Number       Type             X           Y           Z
 ---------------------------------------------------------------------
      1          6           0        0.000000    0.000000    0.000000
      2          8           0        0.000000   -0.000000    1.160330
      3          8           0        0.000000   -0.000000   -1.160330
 ---------------------------------------------------------------------

 SCF Done:  E(RB3LYP) =  -188.660569578     A.U. after    1 cycles

 The electronic state is 1-SGG.
 Alpha  occ. eigenvalues --  -19.21388 -19.21385 -10.36640  -1.16883  -1.12923
 Alpha  occ. eigenvalues --   -0.57006  -0.52777  -0.52439  -0.52439  -0.38017
 Alpha  occ. eigenvalues --   -0.38017
 Alpha virt. eigenvalues --    0.02714   0.02714   0.03690   0.22059   0.25310
 Alpha virt. eigenvalues --    0.25310   0.33929   0.49922   0.53515   0.53515
 Alpha virt. eigenvalues --    0.54610   0.58270   0.58270   0.74328   0.74328

 Mulliken charges:
               1
     1  C    0.368422
     2  O   -0.184211
     3  O   -0.184211
 Sum of Mulliken charges =  -0.00000

 Dipole moment (field-independent basis, Debye):
    X=             -0.0000    Y=              0.0000    Z=              0.0000  Tot=              0.0000
 Quadrupole moment (field-independent basis, Debye-Ang):
   XX=            -14.7033   YY=            -14.7033   ZZ=            -19.1361
   XY=             -0.0000   XZ=             -0.0000   YZ=              0.0000

  Exact polarizability:   9.916   0.000   9.916   0.000  -0.000  23.460
 Approx polarizability:  13.052  -0.000  13.052  -0.000  -0.000  45.349

                      1                      2                      3
                     PIU                    PIU                    SGG
 Frequencies --    671.6412               671.6412              1371.8938
 Red. masses --     12.8774                12.8774                15.9949
 Frc consts  --      3.4226                 3.4226                17.7367
 IR Inten    --     31.8709                31.8709                 0.0000

                      4
                     SGU
 Frequencies --   2417.2330
 Red. masses --     12.8774
 Frc consts  --     44.3317
 IR Inten    --    629.2407

 - Thermochemistry -
 -------------------
 Temperature   298.150 Kelvin.  Pressure   1.00000 Atm.
 Atom     1 has atomic number  6 and mass  12.00000

 Molecular mass:    43.98983 amu.
 Principal axes and moments of inertia in atomic units:
                           1         2         3
     Eigenvalues --     0.00000 153.80580 153.80580
           X           -0.00000   0.26504   0.96424
           Y           -0.00000   0.96424  -0.26504
           Z            1.00000   0.00000   0.00000
 This molecule is a prolate symmetric top.
 Rotational symmetry number  2.
 Rotational temperature (Kelvin)      0.56314
 Rotational constant (GHZ):          11.733895
 Zero-point vibrational energy      30698.6 (Joules/Mol)
                                    7.33715 (Kcal/Mol)
 Vibrational temperatures:    966.34   966.34  1973.85  3477.86
          (Kelvin)

 Zero-point correction=                           0.011692 (Hartree/Particle)
 Thermal correction to Energy=                    0.014311
 Thermal correction to Enthalpy=                  0.015255
 Thermal correction to Gibbs Free Energy=        -0.008999
 Sum of electronic and zero-point Energies=           -188.648877
 Sum of electronic and thermal Energies=              -188.646259
 Sum of electronic and thermal Enthalpies=            -188.645315
 Sum of electronic and thermal Free Energies=         -188.669569

                     E (Thermal)             CV                S
                      KCal/Mol        Cal/Mol-Kelvin    Cal/Mol-Kelvin
 Total                    8.980              6.856             51.047
 Electronic               0.000              0.000              0.000
 Translational            0.889              2.981             37.270
 Rotational               0.592              1.987             13.073
 Vibrational              7.499              1.888              0.703

 Optimization completed.
    -- Stationary point found.
 Normal termination of Gaussian 16 at Thu Apr  8 15:48:16 2021.
